 Gaussian 09, Revision D.01,
 Gaussian 09:  ES64L-G09RevD.01 24-Apr-2013

 --------------------------------------
 #p B3LYP/6-31G* em=gd3 opt freq nosymm
 --------------------------------------

 -----
 Title
 -----
 Symbolic Z-matrix:
 Charge =  0 Multiplicity = 1

 SCF Done:  E(RB3LYP) =  -234.590174071     A.U. after   12 cycles
 SCF Done:  E(RB3LYP) =  -234.609723112     A.U. after   11 cycles
 SCF Done:  E(RB3LYP) =  -234.629019856     A.U. after   11 cycles
 SCF Done:  E(RB3LYP) =  -234.642832671     A.U. after   12 cycles
 SCF Done:  E(RB3LYP) =  -234.647134741     A.U. after   12 cycles
 SCF Done:  E(RB3LYP) =  -234.648495078     A.U. after   11 cycles
 SCF Done:  E(RB3LYP) =  -234.648922763     A.U. after   11 cycles
 SCF Done:  E(RB3LYP) =  -234.649058171     A.U. after   10 cycles
 SCF Done:  E(RB3LYP) =  -234.649063263     A.U. after    8 cycles
 SCF Done:  E(RB3LYP) =  -234.649063478     A.U. after    7 cycles
 Optimization completed.
    -- Stationary point found.
 Normal termination of Gaussian 09 at Sun May 12 21:01:46 2019.

 --------------------------------------------------------------------
 #P Geom=AllCheck Guess=TCheck SCRF=Check GenChk RB3LYP/6-31G(d) Freq
 --------------------------------------------------------------------

 Structure from the checkpoint file:  "/mnt/e/scratch/Gau-12172.chk"
 -----
 Title
 -----
 Charge =  0 Multiplicity = 1

                          Input orientation:
 ---------------------------------------------------------------------
 Center     Atomic      Atomic             Coordinates (Angstroms)
 Number     Number       Type             X           Y           Z
 ---------------------------------------------------------------------
      1          6           0        0.091088   -1.392712    0.336838
      2          1           0        0.211891   -1.313214    1.428989
      3          1           0        0.100654   -2.463791    0.105894
      4          6           0        1.227912   -0.668151   -0.340997
      5          1           0        2.025004   -1.238641   -0.813364
      6          6           0        1.227143    0.668786   -0.341600
      7          6           0        0.089928    1.392824    0.336179
      8          1           0        0.098383    2.463718    0.104374
      9          1           0        2.023679    1.239715   -0.814373
     10          1           0        0.211640    1.314381    1.428294
     11          6           0       -1.275488   -0.778289   -0.060027
     12          1           0       -2.051289   -1.165331    0.611211
     13          1           0       -1.528099   -1.137095   -1.064153
     14          6           0       -1.276420    0.777379   -0.058606
     15          1           0       -1.532094    1.137722   -1.061395
     16          1           0       -2.050937    1.162280    0.615334
 ---------------------------------------------------------------------

 SCF Done:  E(RB3LYP) =  -234.649063478     A.U. after    1 cycles

 Alpha  occ. eigenvalues --  -10.17950 -10.17947 -10.17755 -10.17737 -10.17297
 Alpha  occ. eigenvalues --  -10.17211  -0.82235  -0.72985  -0.72974  -0.61390
 Alpha  occ. eigenvalues --   -0.58645  -0.49618  -0.48710  -0.46529  -0.39505
 Alpha  occ. eigenvalues --   -0.39465  -0.39059  -0.37165  -0.37062  -0.31794
 Alpha  occ. eigenvalues --   -0.31262  -0.29706  -0.23374
 Alpha virt. eigenvalues --    0.02867   0.08881   0.11438   0.13068   0.14707
 Alpha virt. eigenvalues --    0.15123   0.16950   0.18599   0.19335   0.20878
 Alpha virt. eigenvalues --    0.21321   0.23353   0.24683   0.25130   0.31293

 Mulliken charges:
               1
     1  C   -0.305344
     2  H    0.145288
     3  H    0.134631
     4  C   -0.107377
     5  H    0.121690
     6  C   -0.107369
     7  C   -0.305356
     8  H    0.134636
     9  H    0.121679
    10  H    0.145322
    11  C   -0.258693
    12  H    0.130705
    13  H    0.139075
    14  C   -0.258665
    15  H    0.139069
    16  H    0.130708
 Sum of Mulliken charges =   0.00000

 Dipole moment (field-independent basis, Debye):
    X=             -0.2178    Y=              0.0002    Z=              0.0975  Tot=              0.2386
 Quadrupole moment (field-independent basis, Debye-Ang):
   XX=            -38.2848   YY=            -36.7754   ZZ=            -38.2754
   XY=             -0.0018   XZ=             -0.8540   YZ=             -0.0011

  Exact polarizability:  58.867  -0.009  69.304  -5.035  -0.008  47.616
 Approx polarizability:  75.835  -0.020 101.525  -6.686  -0.018  69.863

 ******    1 imaginary frequencies (negative Signs) ******

                      1                      2                      3
                      A                      A                      A
 Frequencies --    -25.0914               210.4817               421.2774
 Red. masses --      1.6422                 1.7867                 2.2456
 Frc consts  --      0.0006                 0.0466                 0.2348
 IR Inten    --      0.0496                 0.1892                 0.3085

                      4                      5                      6
                      A                      A                      A
 Frequencies --    448.6047               532.8823               699.3175
 Red. masses --      2.4862                 3.9544                 1.5587
 Frc consts  --      0.2948                 0.6616                 0.4491
 IR Inten    --      1.7583                 0.0086                13.3608

                      7                      8                      9
                      A                      A                      A
 Frequencies --    699.4470               775.5753               821.2579
 Red. masses --      1.5134                 1.3384                 3.0372
 Frc consts  --      0.4362                 0.4743                 1.2069
 IR Inten    --     16.3569                 2.0505                 0.5075

                     10                     11                     12
                      A                      A                      A
 Frequencies --    891.9655               948.0777               968.0019
 Red. masses --      2.3560                 2.5859                 1.6049
 Frc consts  --      1.1044                 1.3694                 0.8861
 IR Inten    --      1.9214                 0.7758                 2.5681

                     13                     14                     15
                      A                      A                      A
 Frequencies --    973.0125              1003.8943              1054.7080
 Red. masses --      1.2451                 2.4036                 1.9244
 Frc consts  --      0.6946                 1.4272                 1.2613
 IR Inten    --      0.0011                 0.6210                 0.3230

                     16                     17                     18
                      A                      A                      A
 Frequencies --   1081.5164              1107.9210              1182.6645
 Red. masses --      2.9106                 1.9947                 1.0603
 Frc consts  --      2.0058                 1.4426                 0.8738
 IR Inten    --      0.6100                 1.1345                 0.8216

                     19                     20                     21
                      A                      A                      A
 Frequencies --   1206.6337              1251.8128              1262.6140
 Red. masses --      1.1192                 1.2480                 1.2189
 Frc consts  --      0.9600                 1.1523                 1.1449
 IR Inten    --      0.4323                 1.3150                 4.9106

                     22                     23                     24
                      A                      A                      A
 Frequencies --   1299.8364              1352.7585              1355.3520
 Red. masses --      1.1653                 1.2967                 1.1892
 Frc consts  --      1.1601                 1.3980                 1.2871
 IR Inten    --      1.0676                 0.1949                 0.1759

                     25                     26                     27
                      A                      A                      A
 Frequencies --   1376.2735              1399.0069              1426.3610
 Red. masses --      1.3955                 1.4346                 1.5883
 Frc consts  --      1.5574                 1.6543                 1.9039
 IR Inten    --      1.6378                 0.8026                 0.0147

                     28                     29                     30
                      A                      A                      A
 Frequencies --   1512.3166              1520.3362              1525.9298
 Red. masses --      1.0790                 1.0918                 1.0899
 Frc consts  --      1.4539                 1.4869                 1.4952
 IR Inten    --      0.0009                 0.4133                 4.8124

                     31                     32                     33
                      A                      A                      A
 Frequencies --   1543.5177              1717.3105              3000.4685
 Red. masses --      1.0928                 6.0831                 1.0718
 Frc consts  --      1.5340                10.5700                 5.6849
 IR Inten    --      0.3067                 1.4473                50.1836

                     34                     35                     36
                      A                      A                      A
 Frequencies --   3004.3353              3043.4144              3057.1949
 Red. masses --      1.0720                 1.0606                 1.0627
 Frc consts  --      5.7007                 5.7878                 5.8521
 IR Inten    --     11.2821                22.1992                56.3831

                     37                     38                     39
                      A                      A                      A
 Frequencies --   3073.4510              3084.4964              3084.9992
 Red. masses --      1.1017                 1.0900                 1.0948
 Frc consts  --      6.1315                 6.1101                 6.1387
 IR Inten    --     19.6788                 9.4295                60.8774

                     40                     41                     42
                      A                      A                      A
 Frequencies --   3101.3909              3164.7695              3188.7679
 Red. masses --      1.1052                 1.0851                 1.0994
 Frc consts  --      6.2633                 6.4030                 6.5864
 IR Inten    --     71.6641                10.9409                41.8030

 - Thermochemistry -
 -------------------
 Temperature   298.150 Kelvin.  Pressure   1.00000 Atm.
 Atom     1 has atomic number  6 and mass  12.00000

 Molecular mass:    82.07825 amu.
 Principal axes and moments of inertia in atomic units:
                           1         2         3
     Eigenvalues --   389.14007 396.63038 692.75893
           X            0.99367   0.00680   0.11213
           Y           -0.00685   0.99998   0.00007
           Z           -0.11213  -0.00083   0.99369
 This molecule is an asymmetric top.
 Rotational symmetry number  1.
 Rotational temperatures (Kelvin)      0.22258     0.21837     0.12503
 Rotational constants (GHZ):           4.63777     4.55018     2.60515
    1 imaginary frequencies ignored.
 Zero-point vibrational energy     385041.7 (Joules/Mol)
                                   92.02719 (Kcal/Mol)
 Warning -- explicit consideration of   4 degrees of freedom as
           vibrations may cause significant error
 Vibrational temperatures:    302.84   606.12   645.44   766.70  1006.16
          (Kelvin)           1006.35  1115.88  1181.61  1283.34  1364.07
                             1392.74  1399.95  1444.38  1517.49  1556.06
                             1594.05  1701.59  1736.07  1801.08  1816.62
                             1870.17  1946.32  1950.05  1980.15  2012.86
                             2052.21  2175.88  2187.42  2195.47  2220.77
                             2470.82  4317.00  4322.56  4378.79  4398.62
                             4422.01  4437.90  4438.62  4462.20  4553.39
                             4587.92

 Zero-point correction=                           0.146655 (Hartree/Particle)
 Thermal correction to Energy=                    0.151603
 Thermal correction to Enthalpy=                  0.152547
 Thermal correction to Gibbs Free Energy=         0.118467
 Sum of electronic and zero-point Energies=           -234.502409
 Sum of electronic and thermal Energies=              -234.497460
 Sum of electronic and thermal Enthalpies=            -234.496516
 Sum of electronic and thermal Free Energies=         -234.530597

                     E (Thermal)             CV                S
                      KCal/Mol        Cal/Mol-Kelvin    Cal/Mol-Kelvin
 Total                   95.132             19.535             71.729
 Electronic               0.000              0.000              0.000
 Translational            0.889              2.981             39.129
 Rotational               0.889              2.981             26.172
 Vibrational             93.355             13.573              6.427
 Vibration     1          0.643              1.825              2.039
 Vibration     2          0.784              1.424              0.888
 Vibration     3          0.808              1.364              0.800
 Vibration     4          0.888              1.177              0.581

 Normal termination of Gaussian 09 at Sun May 12 21:02:06 2019.
