 Gaussian 09, Revision D.01,
 Gaussian 09:  ES64L-G09RevD.01 24-Apr-2013

 --------------------------------------
 #p B3LYP/6-31G* em=gd3 opt freq nosymm
 --------------------------------------

 -----
 Title
 -----
 Symbolic Z-matrix:
 Charge =  0 Multiplicity = 1

 SCF Done:  E(RB3LYP) =  -234.568344567     A.U. after   13 cycles
 SCF Done:  E(RB3LYP) =  -234.575355939     A.U. after   11 cycles
 SCF Done:  E(RB3LYP) =  -234.576945238     A.U. after   13 cycles
 SCF Done:  E(RB3LYP) =  -234.581082844     A.U. after   12 cycles
 SCF Done:  E(RB3LYP) =  -234.581484414     A.U. after   11 cycles
 SCF Done:  E(RB3LYP) =  -234.581531508     A.U. after    9 cycles
 SCF Done:  E(RB3LYP) =  -234.581568583     A.U. after    9 cycles
 SCF Done:  E(RB3LYP) =  -234.581611552     A.U. after    9 cycles
 SCF Done:  E(RB3LYP) =  -234.581731807     A.U. after   11 cycles
 SCF Done:  E(RB3LYP) =  -234.582116076     A.U. after   13 cycles
 SCF Done:  E(RB3LYP) =  -234.583747312     A.U. after   10 cycles
 SCF Done:  E(RB3LYP) =  -234.583749209     A.U. after   10 cycles
 SCF Done:  E(RB3LYP) =  -234.583753329     A.U. after   10 cycles
 SCF Done:  E(RB3LYP) =  -234.583755073     A.U. after   10 cycles
 SCF Done:  E(RB3LYP) =  -234.583755391     A.U. after    8 cycles
 SCF Done:  E(RB3LYP) =  -234.583755441     A.U. after    8 cycles
 SCF Done:  E(RB3LYP) =  -234.583755471     A.U. after    8 cycles
 SCF Done:  E(RB3LYP) =  -234.583755498     A.U. after    7 cycles
 SCF Done:  E(RB3LYP) =  -234.583755517     A.U. after    7 cycles
 Optimization completed.
    -- Stationary point found.
 Normal termination of Gaussian 09 at Sun May 12 21:00:54 2019.

 --------------------------------------------------------------------
 #P Geom=AllCheck Guess=TCheck SCRF=Check GenChk RB3LYP/6-31G(d) Freq
 --------------------------------------------------------------------

 Structure from the checkpoint file:  "/mnt/e/scratch/Gau-7892.chk"
 -----
 Title
 -----
 Charge =  0 Multiplicity = 1

                          Input orientation:
 ---------------------------------------------------------------------
 Center     Atomic      Atomic             Coordinates (Angstroms)
 Number     Number       Type             X           Y           Z
 ---------------------------------------------------------------------
      1          6           0        1.254566   -1.654995    0.566532
      2          1           0        1.031788   -1.325935    1.578567
      3          1           0        1.233177   -2.725436    0.383216
      4          6           0        1.555775   -0.783327   -0.405828
      5          1           0        1.823903   -1.170170   -1.389612
      6          6           0        1.587973    0.679953   -0.264550
      7          6           0        0.829715    1.399330    0.573727
      8          1           0        0.925844    2.479563    0.638046
      9          1           0        2.284470    1.202602   -0.921109
     10          1           0        0.074133    0.937294    1.203165
     11          6           0       -2.384131   -0.475216   -0.094819
     12          1           0       -3.216299   -1.088045    0.245723
     13          1           0       -1.407532   -0.952292   -0.126082
     14          6           0       -2.551640    0.795409   -0.458182
     15          1           0       -1.714734    1.401667   -0.795438
     16          1           0       -3.525987    1.278924   -0.431773
 ---------------------------------------------------------------------

 SCF Done:  E(RB3LYP) =  -234.583755517     A.U. after    1 cycles

 Alpha  occ. eigenvalues --  -10.19552 -10.19417 -10.18539 -10.18356 -10.17673
 Alpha  occ. eigenvalues --  -10.17545  -0.80218  -0.74753  -0.72651  -0.61827
 Alpha  occ. eigenvalues --   -0.56975  -0.52993  -0.48905  -0.45819  -0.43498
 Alpha  occ. eigenvalues --   -0.42319  -0.40834  -0.36885  -0.34870  -0.34671
 Alpha  occ. eigenvalues --   -0.30872  -0.25993  -0.23346
 Alpha virt. eigenvalues --   -0.02640   0.02412   0.07356   0.10735   0.12398
 Alpha virt. eigenvalues --    0.13527   0.14811   0.15695   0.16778   0.17986
 Alpha virt. eigenvalues --    0.19039   0.21115   0.25466   0.31254   0.33626

 Mulliken charges:
               1
     1  C   -0.332869
     2  H    0.147635
     3  H    0.144916
     4  C   -0.085020
     5  H    0.133105
     6  C   -0.088304
     7  C   -0.335617
     8  H    0.143313
     9  H    0.131883
    10  H    0.155984
    11  C   -0.301777
    12  H    0.135910
    13  H    0.157082
    14  C   -0.292557
    15  H    0.149288
    16  H    0.137028
 Sum of Mulliken charges =   0.00000

 Dipole moment (field-independent basis, Debye):
    X=              0.3322    Y=             -0.0075    Z=             -0.0620  Tot=              0.3380
 Quadrupole moment (field-independent basis, Debye-Ang):
   XX=            -38.7504   YY=            -35.1030   ZZ=            -38.6040
   XY=              0.1053   XZ=             -2.5498   YZ=             -0.5743

  Exact polarizability:  53.664  -4.289  83.442 -11.089  -5.231  47.449
 Approx polarizability:  69.041  -8.342 130.138 -19.624 -10.979  73.630

                      1                      2                      3
                      A                      A                      A
 Frequencies --     25.1461                33.1905                57.8494
 Red. masses --      2.3727                 2.6490                 2.5978
 Frc consts  --      0.0009                 0.0017                 0.0051
 IR Inten    --      0.0748                 0.1183                 0.3802

                      4                      5                      6
                      A                      A                      A
 Frequencies --     86.8514               100.2242               148.7622
 Red. masses --      3.2244                 2.0758                 1.1878
 Frc consts  --      0.0143                 0.0123                 0.0155
 IR Inten    --      0.0957                 0.2990                 1.0135

                      7                      8                      9
                      A                      A                      A
 Frequencies --    176.1489               289.9559               481.8463
 Red. masses --      1.6201                 2.5525                 1.3285
 Frc consts  --      0.0296                 0.1264                 0.1817
 IR Inten    --      0.3001                 0.0402                 9.3344

                     10                     11                     12
                      A                      A                      A
 Frequencies --    622.0698               758.7872               849.8380
 Red. masses --      1.7824                 1.6578                 1.0420
 Frc consts  --      0.4064                 0.5624                 0.4434
 IR Inten    --      4.5302                 3.2546                 2.3897

                     13                     14                     15
                      A                      A                      A
 Frequencies --    894.7902               935.4005               941.6220
 Red. masses --      2.0864                 1.3846                 1.3755
 Frc consts  --      0.9842                 0.7138                 0.7185
 IR Inten    --      0.5960                36.9923                63.4594

                     16                     17                     18
                      A                      A                      A
 Frequencies --    964.8494               986.5213              1026.5396
 Red. masses --      1.4867                 1.1666                 1.1111
 Frc consts  --      0.8154                 0.6690                 0.6898
 IR Inten    --      1.8176                67.9978                 0.9586

                     19                     20                     21
                      A                      A                      A
 Frequencies --   1036.4044              1079.6828              1084.4487
 Red. masses --      1.0854                 1.0191                 1.4298
 Frc consts  --      0.6869                 0.7000                 0.9907
 IR Inten    --     33.5812                 0.2299                 0.2293

                     22                     23                     24
                      A                      A                      A
 Frequencies --   1118.2557              1251.7148              1325.8734
 Red. masses --      1.5673                 1.5141                 1.2831
 Frc consts  --      1.1547                 1.3977                 1.3290
 IR Inten    --      5.0223                 0.8461                 0.3029

                     25                     26                     27
                      A                      A                      A
 Frequencies --   1364.9995              1399.6668              1459.4949
 Red. masses --      1.3029                 1.2394                 1.1648
 Frc consts  --      1.4303                 1.4306                 1.4619
 IR Inten    --      0.1485                 1.1868                 1.0017

                     28                     29                     30
                      A                      A                      A
 Frequencies --   1488.7817              1491.3882              1693.0402
 Red. masses --      1.2655                 1.1185                 4.4959
 Frc consts  --      1.6526                 1.4658                 7.5929
 IR Inten    --      6.3965                 6.3022                 2.7305

                     31                     32                     33
                      A                      A                      A
 Frequencies --   1715.3166              1717.4882              3140.7483
 Red. masses --      3.0379                 3.5944                 1.0841
 Frc consts  --      5.2664                 6.2469                 6.3005
 IR Inten    --      0.6400                 0.7100                10.9344

                     34                     35                     36
                      A                      A                      A
 Frequencies --   3148.1095              3153.8763              3163.6956
 Red. masses --      1.0483                 1.0786                 1.0735
 Frc consts  --      6.1214                 6.3212                 6.3305
 IR Inten    --     14.5106                32.4820                 7.8383

                     37                     38                     39
                      A                      A                      A
 Frequencies --   3164.6776              3170.9327              3224.1082
 Red. masses --      1.0648                 1.0688                 1.1145
 Frc consts  --      6.2834                 6.3316                 6.8259
 IR Inten    --      5.3260                 1.2944                 1.9244

                     40                     41                     42
                      A                      A                      A
 Frequencies --   3245.8987              3249.3037              3251.7381
 Red. masses --      1.1166                 1.1171                 1.1166
 Frc consts  --      6.9311                 6.9493                 6.9561
 IR Inten    --     17.6644                27.1409                 4.0593

 - Thermochemistry -
 -------------------
 Temperature   298.150 Kelvin.  Pressure   1.00000 Atm.
 Atom     1 has atomic number  6 and mass  12.00000

 Molecular mass:    82.07825 amu.
 Principal axes and moments of inertia in atomic units:
                           1         2         3
     Eigenvalues --   429.202741065.896201352.79221
           X            0.98478   0.15932  -0.06945
           Y           -0.15661   0.98673   0.04284
           Z            0.07536  -0.03131   0.99666
 This molecule is an asymmetric top.
 Rotational symmetry number  1.
 Rotational temperatures (Kelvin)      0.20180     0.08126     0.06403
 Rotational constants (GHZ):           4.20487     1.69317     1.33409
 Zero-point vibrational energy     361990.2 (Joules/Mol)
                                   86.51774 (Kcal/Mol)
 Warning -- explicit consideration of   9 degrees of freedom as
           vibrations may cause significant error
 Vibrational temperatures:     36.18    47.75    83.23   124.96   144.20
          (Kelvin)            214.04   253.44   417.18   693.27   895.02
                             1091.72  1222.73  1287.40  1345.83  1354.78
                             1388.20  1419.38  1476.96  1491.15  1553.42
                             1560.28  1608.92  1800.94  1907.63  1963.93
                             2013.81  2099.88  2142.02  2145.77  2435.90
                             2467.95  2471.08  4518.83  4529.42  4537.72
                             4551.85  4553.26  4562.26  4638.77  4670.12
                             4675.02  4678.52

 Zero-point correction=                           0.137875 (Hartree/Particle)
 Thermal correction to Energy=                    0.147432
 Thermal correction to Enthalpy=                  0.148376
 Thermal correction to Gibbs Free Energy=         0.100995
 Sum of electronic and zero-point Energies=           -234.445881
 Sum of electronic and thermal Energies=              -234.436324
 Sum of electronic and thermal Enthalpies=            -234.435379
 Sum of electronic and thermal Free Energies=         -234.482761

                     E (Thermal)             CV                S
                      KCal/Mol        Cal/Mol-Kelvin    Cal/Mol-Kelvin
 Total                   92.515             29.491             99.722
 Electronic               0.000              0.000              0.000
 Translational            0.889              2.981             39.129
 Rotational               0.889              2.981             27.917
 Vibrational             90.737             23.530             32.676
 Vibration     1          0.593              1.985              6.180
 Vibration     2          0.594              1.983              5.629
 Vibration     3          0.596              1.974              4.529
 Vibration     4          0.601              1.958              3.730
 Vibration     5          0.604              1.949              3.450
 Vibration     6          0.618              1.904              2.688
 Vibration     7          0.628              1.872              2.369
 Vibration     8          0.686              1.692              1.474
 Vibration     9          0.838              1.290              0.705

 Optimization completed.
    -- Stationary point found.
 Normal termination of Gaussian 09 at Sun May 12 21:01:11 2019.
