 Gaussian 09, Revision D.01,
 Gaussian 09:  ES64L-G09RevD.01 24-Apr-2013

 ------------------------------------------------------
 #p B3LYP/6-31G* em=gd3 opt(ts,calcfc,noeigentest) freq
 ------------------------------------------------------

 -----
 Title
 -----
 Symbolic Z-matrix:
 Charge =  0 Multiplicity = 1

 SCF Done:  E(RB3LYP) =  -234.473220885     A.U. after   15 cycles
 SCF Done:  E(RB3LYP) =  -234.516515666     A.U. after   14 cycles
 SCF Done:  E(RB3LYP) =  -234.543002220     A.U. after   14 cycles
 SCF Done:  E(RB3LYP) =  -234.551719457     A.U. after   13 cycles
 SCF Done:  E(RB3LYP) =  -234.555736741     A.U. after   13 cycles
 SCF Done:  E(RB3LYP) =  -234.554344004     A.U. after   13 cycles
 SCF Done:  E(RB3LYP) =  -234.554295783     A.U. after   14 cycles
 SCF Done:  E(RB3LYP) =  -234.554419859     A.U. after   13 cycles
 SCF Done:  E(RB3LYP) =  -234.555662326     A.U. after   13 cycles
 SCF Done:  E(RB3LYP) =  -234.555890666     A.U. after   13 cycles
 SCF Done:  E(RB3LYP) =  -234.554425625     A.U. after   13 cycles
 SCF Done:  E(RB3LYP) =  -234.555732172     A.U. after   14 cycles
 SCF Done:  E(RB3LYP) =  -234.556042123     A.U. after   12 cycles
 SCF Done:  E(RB3LYP) =  -234.556050549     A.U. after   11 cycles
 SCF Done:  E(RB3LYP) =  -234.556053948     A.U. after    8 cycles
 SCF Done:  E(RB3LYP) =  -234.556054950     A.U. after    8 cycles
 SCF Done:  E(RB3LYP) =  -234.556055170     A.U. after    8 cycles
 Optimization completed.
    -- Stationary point found.
 Normal termination of Gaussian 09 at Sun May 12 20:53:49 2019.

 --------------------------------------------------------------------
 #P Geom=AllCheck Guess=TCheck SCRF=Check GenChk RB3LYP/6-31G(d) Freq
 --------------------------------------------------------------------

 Structure from the checkpoint file:  "/mnt/e/scratch/Gau-3888.chk"
 -----
 Title
 -----
 Charge =  0 Multiplicity = 1

                         Standard orientation:
 ---------------------------------------------------------------------
 Center     Atomic      Atomic             Coordinates (Angstroms)
 Number     Number       Type             X           Y           Z
 ---------------------------------------------------------------------
      1          6           0        0.446137   -1.436757    0.492327
      2          1           0        0.130571   -1.069510    1.462553
      3          1           0        0.389758   -2.516583    0.379586
      4          6           0        1.320691   -0.703052   -0.290217
      5          1           0        1.863210   -1.213196   -1.084865
      6          6           0        1.320066    0.703524   -0.290951
      7          6           0        0.445350    1.437627    0.490907
      8          1           0        0.388241    2.517211    0.376206
      9          1           0        1.862050    1.213314   -1.086452
     10          1           0        0.130907    1.072140    1.462309
     11          6           0       -1.571953   -0.694317   -0.229135
     12          1           0       -2.077752   -1.238974    0.563198
     13          1           0       -1.461852   -1.233898   -1.163084
     14          6           0       -1.573609    0.692913   -0.226343
     15          1           0       -1.465870    1.236783   -1.158062
     16          1           0       -2.079356    1.233091    0.569080
 ---------------------------------------------------------------------

 SCF Done:  E(RB3LYP) =  -234.556055170     A.U. after    1 cycles

 The electronic state is 1-A.
 Alpha  occ. eigenvalues --  -10.18550 -10.18548 -10.18113 -10.18054 -10.17564
 Alpha  occ. eigenvalues --  -10.17514  -0.80023  -0.73909  -0.71069  -0.61716
 Alpha  occ. eigenvalues --   -0.57575  -0.51485  -0.48488  -0.45839  -0.42141
 Alpha  occ. eigenvalues --   -0.40100  -0.39983  -0.36123  -0.35014  -0.33755
 Alpha  occ. eigenvalues --   -0.33513  -0.22109  -0.21870
 Alpha virt. eigenvalues --   -0.00837   0.01949   0.09607   0.10990   0.12507
 Alpha virt. eigenvalues --    0.14387   0.14656   0.15194   0.17285   0.20353
 Alpha virt. eigenvalues --    0.20548   0.23983   0.24952   0.29302   0.32389

 Mulliken charges:
               1
     1  C   -0.336944
     2  H    0.155820
     3  H    0.140442
     4  C   -0.079942
     5  H    0.120439
     6  C   -0.079936
     7  C   -0.337053
     8  H    0.140423
     9  H    0.120415
    10  H    0.155817
    11  C   -0.297326
    12  H    0.145370
    13  H    0.152289
    14  C   -0.297441
    15  H    0.152385
    16  H    0.145243
 Sum of Mulliken charges =   0.00000

 Dipole moment (field-independent basis, Debye):
    X=             -0.4045    Y=             -0.0010    Z=              0.0032  Tot=              0.4045
 Quadrupole moment (field-independent basis, Debye-Ang):
   XX=            -40.6677   YY=            -35.6358   ZZ=            -36.6862
   XY=             -0.0028   XZ=             -2.5892   YZ=             -0.0027

  Exact polarizability:  76.075  -0.009  80.721  -6.726  -0.006  50.636
 Approx polarizability: 130.810  -0.028 137.783 -12.188  -0.006  74.396

 ******    1 imaginary frequencies (negative Signs) ******

                      1                      2                      3
                      A                      A                      A
 Frequencies --   -526.1220               135.7144               213.2395
 Red. masses --      8.2983                 2.1193                 4.1783
 Frc consts  --      1.3534                 0.0230                 0.1119
 IR Inten    --      5.6462                 0.6331                 0.9858

                      4                      5                      6
                      A                      A                      A
 Frequencies --    287.3092               385.2790               409.3185
 Red. masses --      2.7352                 2.5959                 2.8592
 Frc consts  --      0.1330                 0.2270                 0.2822
 IR Inten    --      0.2949                 0.1262                 2.3981

                      7                      8                      9
                      A                      A                      A
 Frequencies --    492.6194               600.8415               634.3745
 Red. masses --      2.5628                 2.0382                 1.0923
 Frc consts  --      0.3664                 0.4335                 0.2590
 IR Inten    --      0.6396                 0.0150                 1.4844

                     10                     11                     12
                      A                      A                      A
 Frequencies --    699.5909               786.6416               822.5221
 Red. masses --      1.2095                 1.5024                 1.1237
 Frc consts  --      0.3488                 0.5477                 0.4479
 IR Inten    --     24.4674                 0.4983                 0.1237

                     13                     14                     15
                      A                      A                      A
 Frequencies --    864.7123               915.9248               953.2912
 Red. masses --      1.0294                 1.1491                 1.3518
 Frc consts  --      0.4535                 0.5680                 0.7238
 IR Inten    --      0.2742                14.0552                18.1080

                     16                     17                     18
                      A                      A                      A
 Frequencies --    973.6849               987.1326               996.8616
 Red. masses --      1.3159                 1.2891                 1.1527
 Frc consts  --      0.7350                 0.7401                 0.6749
 IR Inten    --      0.0891                 2.0387                 2.9949

                     19                     20                     21
                      A                      A                      A
 Frequencies --   1014.6029              1016.1665              1116.8655
 Red. masses --      1.1919                 1.1241                 1.6343
 Frc consts  --      0.7229                 0.6839                 1.2011
 IR Inten    --     26.3660                 5.1327                 1.4232

                     22                     23                     24
                      A                      A                      A
 Frequencies --   1118.0744              1254.3773              1261.0404
 Red. masses --      1.5178                 1.4064                 1.8204
 Frc consts  --      1.1179                 1.3038                 1.7056
 IR Inten    --      0.4998                 0.0484                 0.0944

                     25                     26                     27
                      A                      A                      A
 Frequencies --   1282.4749              1330.2546              1455.2715
 Red. masses --      1.4800                 1.5002                 1.2278
 Frc consts  --      1.4342                 1.5642                 1.5320
 IR Inten    --      0.2520                 1.5206                 0.8478

                     28                     29                     30
                      A                      A                      A
 Frequencies --   1490.5151              1515.2545              1568.7586
 Red. masses --      1.1083                 1.6405                 1.4100
 Frc consts  --      1.4507                 2.2192                 2.0445
 IR Inten    --      1.1129                 6.7327                 2.4791

                     31                     32                     33
                      A                      A                      A
 Frequencies --   1613.5718              1616.8796              3150.1813
 Red. masses --      2.4093                 2.2876                 1.0817
 Frc consts  --      3.6959                 3.5237                 6.3245
 IR Inten    --      1.4705                 0.5927                 4.2598

                     34                     35                     36
                      A                      A                      A
 Frequencies --   3159.2695              3161.2336              3168.2445
 Red. masses --      1.0532                 1.0640                 1.0616
 Frc consts  --      6.1937                 6.2647                 6.2782
 IR Inten    --      3.6599                23.3923                25.0158

                     37                     38                     39
                      A                      A                      A
 Frequencies --   3172.1960              3175.5089              3237.2521
 Red. masses --      1.0662                 1.0838                 1.1147
 Frc consts  --      6.3213                 6.4389                 6.8827
 IR Inten    --     10.4629                 8.0803                 1.5917

                     40                     41                     42
                      A                      A                      A
 Frequencies --   3242.2497              3244.4890              3262.4010
 Red. masses --      1.1149                 1.1146                 1.1167
 Frc consts  --      6.9055                 6.9128                 7.0028
 IR Inten    --      8.4034                16.3029                21.8706

 - Thermochemistry -
 -------------------
 Temperature   298.150 Kelvin.  Pressure   1.00000 Atm.
 Atom     1 has atomic number  6 and mass  12.00000

 Molecular mass:    82.07825 amu.
 Principal axes and moments of inertia in atomic units:
                           1         2         3
     Eigenvalues --   416.20124 520.23003 798.18800
           X            0.99977  -0.00010  -0.02164
           Y            0.00010   1.00000   0.00000
           Z            0.02164   0.00000   0.99977
 This molecule is an asymmetric top.
 Rotational symmetry number  1.
 Rotational temperatures (Kelvin)      0.20811     0.16649     0.10851
 Rotational constants (GHZ):           4.33622     3.46912     2.26105
    1 imaginary frequencies ignored.
 Zero-point vibrational energy     369563.5 (Joules/Mol)
                                   88.32779 (Kcal/Mol)
 Warning -- explicit consideration of   7 degrees of freedom as
           vibrations may cause significant error
 Vibrational temperatures:    195.26   306.80   413.37   554.33   588.92
          (Kelvin)            708.77   864.48   912.72  1006.55  1131.80
                             1183.42  1244.13  1317.81  1371.57  1400.91
                             1420.26  1434.26  1459.79  1462.04  1606.92
                             1608.66  1804.77  1814.35  1845.19  1913.94
                             2093.81  2144.52  2180.11  2257.09  2321.57
                             2326.33  4532.40  4545.48  4548.30  4558.39
                             4564.08  4568.84  4657.68  4664.87  4668.09
                             4693.86

 Zero-point correction=                           0.140759 (Hartree/Particle)
 Thermal correction to Energy=                    0.147123
 Thermal correction to Enthalpy=                  0.148067
 Thermal correction to Gibbs Free Energy=         0.111243
 Sum of electronic and zero-point Energies=           -234.415296
 Sum of electronic and thermal Energies=              -234.408932
 Sum of electronic and thermal Enthalpies=            -234.407988
 Sum of electronic and thermal Free Energies=         -234.444812

                     E (Thermal)             CV                S
                      KCal/Mol        Cal/Mol-Kelvin    Cal/Mol-Kelvin
 Total                   92.321             24.640             77.502
 Electronic               0.000              0.000              0.000
 Translational            0.889              2.981             39.129
 Rotational               0.889              2.981             26.649
 Vibrational             90.544             18.678             11.723
 Vibration     1          0.614              1.918              2.863
 Vibration     2          0.644              1.821              2.016
 Vibration     3          0.684              1.697              1.490
 Vibration     4          0.754              1.502              1.018
 Vibration     5          0.774              1.450              0.929
 Vibration     6          0.848              1.266              0.677
 Vibration     7          0.959              1.030              0.448

 Normal termination of Gaussian 09 at Sun May 12 20:54:08 2019.
